ITEM: TIMESTEP
0
ITEM: NUMBER OF ATOMS
400
ITEM: BOX BOUNDS pp pp pp
0.0000000000000000e+00 4.0000000000000000e+01
0.0000000000000000e+00 4.0000000000000000e+01
0.0000000000000000e+00 4.0000000000000000e+01
ITEM: ATOMS id type x y z ix iy iz 
1 1 5 5 5 0 0 0 
2 1 6.5 5 5 0 0 0 
3 1 8 5 5 0 0 0 
4 1 9.5 5 5 0 0 0 
5 1 11 5 5 0 0 0 
6 1 12.5 5 5 0 0 0 
7 1 14 5 5 0 0 0 
8 1 15.5 5 5 0 0 0 
9 1 17 5 5 0 0 0 
10 1 18.5 5 5 0 0 0 
11 1 20 5 5 0 0 0 
12 1 21.5 5 5 0 0 0 
13 1 23 5 5 0 0 0 
14 1 24.5 5 5 0 0 0 
15 1 26 5 5 0 0 0 
16 1 27.5 5 5 0 0 0 
17 1 29 5 5 0 0 0 
18 1 30.5 5 5 0 0 0 
19 1 32 5 5 0 0 0 
20 1 33.5 5 5 0 0 0 
101 1 5 9 5 0 0 0 
102 1 6.5 9 5 0 0 0 
103 1 8 9 5 0 0 0 
104 1 9.5 9 5 0 0 0 
105 1 11 9 5 0 0 0 
106 1 12.5 9 5 0 0 0 
107 1 14 9 5 0 0 0 
108 1 15.5 9 5 0 0 0 
109 1 17 9 5 0 0 0 
110 1 18.5 9 5 0 0 0 
111 1 20 9 5 0 0 0 
112 1 21.5 9 5 0 0 0 
113 1 23 9 5 0 0 0 
114 1 24.5 9 5 0 0 0 
115 1 26 9 5 0 0 0 
116 1 27.5 9 5 0 0 0 
117 1 29 9 5 0 0 0 
118 1 30.5 9 5 0 0 0 
119 1 32 9 5 0 0 0 
120 1 33.5 9 5 0 0 0 
201 1 5 13 5 0 0 0 
202 1 6.5 13 5 0 0 0 
203 1 8 13 5 0 0 0 
204 1 9.5 13 5 0 0 0 
205 1 11 13 5 0 0 0 
206 1 12.5 13 5 0 0 0 
207 1 14 13 5 0 0 0 
208 1 15.5 13 5 0 0 0 
209 1 17 13 5 0 0 0 
210 1 18.5 13 5 0 0 0 
211 1 20 13 5 0 0 0 
212 1 21.5 13 5 0 0 0 
213 1 23 13 5 0 0 0 
214 1 24.5 13 5 0 0 0 
215 1 26 13 5 0 0 0 
216 1 27.5 13 5 0 0 0 
217 1 29 13 5 0 0 0 
218 1 30.5 13 5 0 0 0 
219 1 32 13 5 0 0 0 
220 1 33.5 13 5 0 0 0 
301 1 5 17 5 0 0 0 
302 1 6.5 17 5 0 0 0 
303 1 8 17 5 0 0 0 
304 1 9.5 17 5 0 0 0 
305 1 11 17 5 0 0 0 
306 1 12.5 17 5 0 0 0 
307 1 14 17 5 0 0 0 
308 1 15.5 17 5 0 0 0 
309 1 17 17 5 0 0 0 
310 1 18.5 17 5 0 0 0 
311 1 20 17 5 0 0 0 
312 1 21.5 17 5 0 0 0 
313 1 23 17 5 0 0 0 
314 1 24.5 17 5 0 0 0 
315 1 26 17 5 0 0 0 
316 1 27.5 17 5 0 0 0 
317 1 29 17 5 0 0 0 
318 1 30.5 17 5 0 0 0 
319 1 32 17 5 0 0 0 
320 1 33.5 17 5 0 0 0 
21 1 5 5 9 0 0 0 
22 1 6.5 5 9 0 0 0 
23 1 8 5 9 0 0 0 
24 1 9.5 5 9 0 0 0 
25 1 11 5 9 0 0 0 
26 1 12.5 5 9 0 0 0 
27 1 14 5 9 0 0 0 
28 1 15.5 5 9 0 0 0 
29 1 17 5 9 0 0 0 
30 1 18.5 5 9 0 0 0 
31 1 20 5 9 0 0 0 
32 1 21.5 5 9 0 0 0 
33 1 23 5 9 0 0 0 
34 1 24.5 5 9 0 0 0 
35 1 26 5 9 0 0 0 
36 1 27.5 5 9 0 0 0 
37 1 29 5 9 0 0 0 
38 1 30.5 5 9 0 0 0 
39 1 32 5 9 0 0 0 
40 1 33.5 5 9 0 0 0 
121 1 5 9 9 0 0 0 
122 1 6.5 9 9 0 0 0 
123 1 8 9 9 0 0 0 
124 1 9.5 9 9 0 0 0 
125 1 11 9 9 0 0 0 
126 1 12.5 9 9 0 0 0 
127 1 14 9 9 0 0 0 
128 1 15.5 9 9 0 0 0 
129 1 17 9 9 0 0 0 
130 1 18.5 9 9 0 0 0 
131 1 20 9 9 0 0 0 
132 1 21.5 9 9 0 0 0 
133 1 23 9 9 0 0 0 
134 1 24.5 9 9 0 0 0 
135 1 26 9 9 0 0 0 
136 1 27.5 9 9 0 0 0 
137 1 29 9 9 0 0 0 
138 1 30.5 9 9 0 0 0 
139 1 32 9 9 0 0 0 
140 1 33.5 9 9 0 0 0 
221 1 5 13 9 0 0 0 
222 1 6.5 13 9 0 0 0 
223 1 8 13 9 0 0 0 
224 1 9.5 13 9 0 0 0 
225 1 11 13 9 0 0 0 
226 1 12.5 13 9 0 0 0 
227 1 14 13 9 0 0 0 
228 1 15.5 13 9 0 0 0 
229 1 17 13 9 0 0 0 
230 1 18.5 13 9 0 0 0 
231 1 20 13 9 0 0 0 
232 1 21.5 13 9 0 0 0 
233 1 23 13 9 0 0 0 
234 1 24.5 13 9 0 0 0 
235 1 26 13 9 0 0 0 
236 1 27.5 13 9 0 0 0 
237 1 29 13 9 0 0 0 
238 1 30.5 13 9 0 0 0 
239 1 32 13 9 0 0 0 
240 1 33.5 13 9 0 0 0 
321 1 5 17 9 0 0 0 
322 1 6.5 17 9 0 0 0 
323 1 8 17 9 0 0 0 
324 1 9.5 17 9 0 0 0 
325 1 11 17 9 0 0 0 
326 1 12.5 17 9 0 0 0 
327 1 14 17 9 0 0 0 
328 1 15.5 17 9 0 0 0 
329 1 17 17 9 0 0 0 
330 1 18.5 17 9 0 0 0 
331 1 20 17 9 0 0 0 
332 1 21.5 17 9 0 0 0 
333 1 23 17 9 0 0 0 
334 1 24.5 17 9 0 0 0 
335 1 26 17 9 0 0 0 
336 1 27.5 17 9 0 0 0 
337 1 29 17 9 0 0 0 
338 1 30.5 17 9 0 0 0 
339 1 32 17 9 0 0 0 
340 1 33.5 17 9 0 0 0 
41 1 5 5 13 0 0 0 
42 1 6.5 5 13 0 0 0 
43 1 8 5 13 0 0 0 
44 1 9.5 5 13 0 0 0 
45 1 11 5 13 0 0 0 
46 1 12.5 5 13 0 0 0 
47 1 14 5 13 0 0 0 
48 1 15.5 5 13 0 0 0 
49 1 17 5 13 0 0 0 
50 1 18.5 5 13 0 0 0 
51 1 20 5 13 0 0 0 
52 1 21.5 5 13 0 0 0 
53 1 23 5 13 0 0 0 
54 1 24.5 5 13 0 0 0 
55 1 26 5 13 0 0 0 
56 1 27.5 5 13 0 0 0 
57 1 29 5 13 0 0 0 
58 1 30.5 5 13 0 0 0 
59 1 32 5 13 0 0 0 
60 1 33.5 5 13 0 0 0 
141 1 5 9 13 0 0 0 
142 1 6.5 9 13 0 0 0 
143 1 8 9 13 0 0 0 
144 1 9.5 9 13 0 0 0 
145 1 11 9 13 0 0 0 
146 1 12.5 9 13 0 0 0 
147 1 14 9 13 0 0 0 
148 1 15.5 9 13 0 0 0 
149 1 17 9 13 0 0 0 
150 1 18.5 9 13 0 0 0 
151 1 20 9 13 0 0 0 
152 1 21.5 9 13 0 0 0 
153 1 23 9 13 0 0 0 
154 1 24.5 9 13 0 0 0 
155 1 26 9 13 0 0 0 
156 1 27.5 9 13 0 0 0 
157 1 29 9 13 0 0 0 
158 1 30.5 9 13 0 0 0 
159 1 32 9 13 0 0 0 
160 1 33.5 9 13 0 0 0 
241 1 5 13 13 0 0 0 
242 1 6.5 13 13 0 0 0 
243 1 8 13 13 0 0 0 
244 1 9.5 13 13 0 0 0 
245 1 11 13 13 0 0 0 
246 1 12.5 13 13 0 0 0 
247 1 14 13 13 0 0 0 
248 1 15.5 13 13 0 0 0 
249 1 17 13 13 0 0 0 
250 1 18.5 13 13 0 0 0 
251 1 20 13 13 0 0 0 
252 1 21.5 13 13 0 0 0 
253 1 23 13 13 0 0 0 
254 1 24.5 13 13 0 0 0 
255 1 26 13 13 0 0 0 
256 1 27.5 13 13 0 0 0 
257 1 29 13 13 0 0 0 
258 1 30.5 13 13 0 0 0 
259 1 32 13 13 0 0 0 
260 1 33.5 13 13 0 0 0 
341 1 5 17 13 0 0 0 
342 1 6.5 17 13 0 0 0 
343 1 8 17 13 0 0 0 
344 1 9.5 17 13 0 0 0 
345 1 11 17 13 0 0 0 
346 1 12.5 17 13 0 0 0 
347 1 14 17 13 0 0 0 
348 1 15.5 17 13 0 0 0 
349 1 17 17 13 0 0 0 
350 1 18.5 17 13 0 0 0 
351 1 20 17 13 0 0 0 
352 1 21.5 17 13 0 0 0 
353 1 23 17 13 0 0 0 
354 1 24.5 17 13 0 0 0 
355 1 26 17 13 0 0 0 
356 1 27.5 17 13 0 0 0 
357 1 29 17 13 0 0 0 
358 1 30.5 17 13 0 0 0 
359 1 32 17 13 0 0 0 
360 1 33.5 17 13 0 0 0 
61 1 5 5 17 0 0 0 
62 1 6.5 5 17 0 0 0 
63 1 8 5 17 0 0 0 
64 1 9.5 5 17 0 0 0 
65 1 11 5 17 0 0 0 
66 1 12.5 5 17 0 0 0 
67 1 14 5 17 0 0 0 
68 1 15.5 5 17 0 0 0 
69 1 17 5 17 0 0 0 
70 1 18.5 5 17 0 0 0 
71 1 20 5 17 0 0 0 
72 1 21.5 5 17 0 0 0 
73 1 23 5 17 0 0 0 
74 1 24.5 5 17 0 0 0 
75 1 26 5 17 0 0 0 
76 1 27.5 5 17 0 0 0 
77 1 29 5 17 0 0 0 
78 1 30.5 5 17 0 0 0 
79 1 32 5 17 0 0 0 
80 1 33.5 5 17 0 0 0 
161 1 5 9 17 0 0 0 
162 1 6.5 9 17 0 0 0 
163 1 8 9 17 0 0 0 
164 1 9.5 9 17 0 0 0 
165 1 11 9 17 0 0 0 
166 1 12.5 9 17 0 0 0 
167 1 14 9 17 0 0 0 
168 1 15.5 9 17 0 0 0 
169 1 17 9 17 0 0 0 
170 1 18.5 9 17 0 0 0 
171 1 20 9 17 0 0 0 
172 1 21.5 9 17 0 0 0 
173 1 23 9 17 0 0 0 
174 1 24.5 9 17 0 0 0 
175 1 26 9 17 0 0 0 
176 1 27.5 9 17 0 0 0 
177 1 29 9 17 0 0 0 
178 1 30.5 9 17 0 0 0 
179 1 32 9 17 0 0 0 
180 1 33.5 9 17 0 0 0 
261 1 5 13 17 0 0 0 
262 1 6.5 13 17 0 0 0 
263 1 8 13 17 0 0 0 
264 1 9.5 13 17 0 0 0 
265 1 11 13 17 0 0 0 
266 1 12.5 13 17 0 0 0 
267 1 14 13 17 0 0 0 
268 1 15.5 13 17 0 0 0 
269 1 17 13 17 0 0 0 
270 1 18.5 13 17 0 0 0 
271 1 20 13 17 0 0 0 
272 1 21.5 13 17 0 0 0 
273 1 23 13 17 0 0 0 
274 1 24.5 13 17 0 0 0 
275 1 26 13 17 0 0 0 
276 1 27.5 13 17 0 0 0 
277 1 29 13 17 0 0 0 
278 1 30.5 13 17 0 0 0 
279 1 32 13 17 0 0 0 
280 1 33.5 13 17 0 0 0 
361 1 5 17 17 0 0 0 
362 1 6.5 17 17 0 0 0 
363 1 8 17 17 0 0 0 
364 1 9.5 17 17 0 0 0 
365 1 11 17 17 0 0 0 
366 1 12.5 17 17 0 0 0 
367 1 14 17 17 0 0 0 
368 1 15.5 17 17 0 0 0 
369 1 17 17 17 0 0 0 
370 1 18.5 17 17 0 0 0 
371 1 20 17 17 0 0 0 
372 1 21.5 17 17 0 0 0 
373 1 23 17 17 0 0 0 
374 1 24.5 17 17 0 0 0 
375 1 26 17 17 0 0 0 
376 1 27.5 17 17 0 0 0 
377 1 29 17 17 0 0 0 
378 1 30.5 17 17 0 0 0 
379 1 32 17 17 0 0 0 
380 1 33.5 17 17 0 0 0 
81 1 5 5 21 0 0 0 
82 1 6.5 5 21 0 0 0 
83 1 8 5 21 0 0 0 
84 1 9.5 5 21 0 0 0 
85 1 11 5 21 0 0 0 
86 1 12.5 5 21 0 0 0 
87 1 14 5 21 0 0 0 
88 1 15.5 5 21 0 0 0 
89 1 17 5 21 0 0 0 
90 1 18.5 5 21 0 0 0 
91 1 20 5 21 0 0 0 
92 1 21.5 5 21 0 0 0 
93 1 23 5 21 0 0 0 
94 1 24.5 5 21 0 0 0 
95 1 26 5 21 0 0 0 
96 1 27.5 5 21 0 0 0 
97 1 29 5 21 0 0 0 
98 1 30.5 5 21 0 0 0 
99 1 32 5 21 0 0 0 
100 1 33.5 5 21 0 0 0 
181 1 5 9 21 0 0 0 
182 1 6.5 9 21 0 0 0 
183 1 8 9 21 0 0 0 
184 1 9.5 9 21 0 0 0 
185 1 11 9 21 0 0 0 
186 1 12.5 9 21 0 0 0 
187 1 14 9 21 0 0 0 
188 1 15.5 9 21 0 0 0 
189 1 17 9 21 0 0 0 
190 1 18.5 9 21 0 0 0 
191 1 20 9 21 0 0 0 
192 1 21.5 9 21 0 0 0 
193 1 23 9 21 0 0 0 
194 1 24.5 9 21 0 0 0 
195 1 26 9 21 0 0 0 
196 1 27.5 9 21 0 0 0 
197 1 29 9 21 0 0 0 
198 1 30.5 9 21 0 0 0 
199 1 32 9 21 0 0 0 
200 1 33.5 9 21 0 0 0 
281 1 5 13 21 0 0 0 
282 1 6.5 13 21 0 0 0 
283 1 8 13 21 0 0 0 
284 1 9.5 13 21 0 0 0 
285 1 11 13 21 0 0 0 
286 1 12.5 13 21 0 0 0 
287 1 14 13 21 0 0 0 
288 1 15.5 13 21 0 0 0 
289 1 17 13 21 0 0 0 
290 1 18.5 13 21 0 0 0 
291 1 20 13 21 0 0 0 
292 1 21.5 13 21 0 0 0 
293 1 23 13 21 0 0 0 
294 1 24.5 13 21 0 0 0 
295 1 26 13 21 0 0 0 
296 1 27.5 13 21 0 0 0 
297 1 29 13 21 0 0 0 
298 1 30.5 13 21 0 0 0 
299 1 32 13 21 0 0 0 
300 1 33.5 13 21 0 0 0 
381 1 5 17 21 0 0 0 
382 1 6.5 17 21 0 0 0 
383 1 8 17 21 0 0 0 
384 1 9.5 17 21 0 0 0 
385 1 11 17 21 0 0 0 
386 1 12.5 17 21 0 0 0 
387 1 14 17 21 0 0 0 
388 1 15.5 17 21 0 0 0 
389 1 17 17 21 0 0 0 
390 1 18.5 17 21 0 0 0 
391 1 20 17 21 0 0 0 
392 1 21.5 17 21 0 0 0 
393 1 23 17 21 0 0 0 
394 1 24.5 17 21 0 0 0 
395 1 26 17 21 0 0 0 
396 1 27.5 17 21 0 0 0 
397 1 29 17 21 0 0 0 
398 1 30.5 17 21 0 0 0 
399 1 32 17 21 0 0 0 
400 1 33.5 17 21 0 0 0 
ITEM: TIMESTEP
1000
ITEM: NUMBER OF ATOMS
400
ITEM: BOX BOUNDS pp pp pp
0.0000000000000000e+00 4.0000000000000000e+01
0.0000000000000000e+00 4.0000000000000000e+01
0.0000000000000000e+00 4.0000000000000000e+01
ITEM: ATOMS id type x y z ix iy iz 
1 1 11.7349 4.56308 4.08504 0 0 0 
2 1 12.4482 4.85753 4.98085 0 0 0 
3 1 13.1696 5.1566 5.83722 0 0 0 
4 1 13.907 5.52394 6.71421 0 0 0 
5 1 14.7094 5.82693 7.52875 0 0 0 
6 1 15.5171 6.25395 8.18626 0 0 0 
7 1 16.3431 6.72279 8.60262 0 0 0 
8 1 17.3974 7.14804 8.901 0 0 0 
9 1 18.4044 7.38677 8.91314 0 0 0 
10 1 19.4227 7.43102 8.74133 0 0 0 
11 1 20.377 7.47251 8.16269 0 0 0 
12 1 21.2712 7.45766 7.44126 0 0 0 
13 1 22.1094 7.59161 6.92873 0 0 0 
14 1 23.0122 7.67325 6.2093 0 0 0 
15 1 23.8888 7.48275 5.67842 0 0 0 
16 1 24.6668 7.16404 4.99205 0 0 0 
17 1 25.1995 6.8537 3.95668 0 0 0 
18 1 26.2026 6.70768 3.37784 0 0 0 
19 1 26.9473 6.69792 2.67898 0 0 0 
20 1 27.5455 7.039 1.92955 0 0 0 
101 1 11.1436 6.26305 3.38349 0 0 0 
102 1 12.1816 6.54991 3.45919 0 0 0 
103 1 13.1881 6.86623 3.69357 0 0 0 
104 1 14.2553 6.80806 3.6711 0 0 0 
105 1 15.3005 7.28342 3.73054 0 0 0 
106 1 16.2293 7.72087 3.59864 0 0 0 
107 1 17.1651 8.24443 3.6517 0 0 0 
108 1 18.1272 8.7667 3.56503 0 0 0 
109 1 19.0658 9.34994 3.34473 0 0 0 
110 1 20.061 9.81385 3.13294 0 0 0 
111 1 21.0274 10.3627 3.51903 0 0 0 
112 1 21.9486 10.4371 3.76233 0 0 0 
113 1 22.9114 10.256 3.89546 0 0 0 
114 1 23.7989 10.0614 4.20639 0 0 0 
115 1 24.9904 9.92407 4.83797 0 0 0 
116 1 25.985 9.66679 5.52714 0 0 0 
117 1 26.7672 9.14629 5.98131 0 0 0 
118 1 27.4677 8.51418 6.6155 0 0 0 
119 1 28.2538 7.88207 6.99262 0 0 0 
120 1 28.8273 7.04554 7.50007 0 0 0 
201 1 9.45784 12.5135 6.15344 0 0 0 
202 1 10.1762 11.6674 6.14659 0 0 0 
203 1 11.0964 11.3216 5.78717 0 0 0 
204 1 12.217 11.0816 5.52496 0 0 0 
205 1 13.4038 10.9381 5.27385 0 0 0 
206 1 14.4252 10.5829 5.36792 0 0 0 
207 1 15.3506 10.2171 5.40785 0 0 0 
208 1 16.4283 10.0412 5.61252 0 0 0 
209 1 17.5792 10.3013 5.68141 0 0 0 
210 1 18.6159 10.5654 5.82844 0 0 0 
211 1 19.6502 11.0445 5.94101 0 0 0 
212 1 20.6536 11.3895 6.26812 0 0 0 
213 1 21.5875 11.869 6.61857 0 0 0 
214 1 22.4708 12.5353 6.69885 0 0 0 
215 1 23.4171 13.0144 7.07059 0 0 0 
216 1 24.3766 13.2874 7.43372 0 0 0 
217 1 25.3275 13.4484 7.79799 0 0 0 
218 1 26.3944 13.8355 8.02511 0 0 0 
219 1 27.3438 14.0086 8.32555 0 0 0 
220 1 28.3501 14.072 8.8667 0 0 0 
301 1 13.9709 12.777 2.2532 0 0 0 
302 1 13.942 13.6087 3.11196 0 0 0 
303 1 14.1247 14.4031 3.79854 0 0 0 
304 1 14.2537 15.3114 4.30559 0 0 0 
305 1 14.5299 16.1749 4.88411 0 0 0 
306 1 15.0849 16.7857 5.6929 0 0 0 
307 1 15.5087 16.8088 6.76243 0 0 0 
308 1 16.3058 16.6087 7.41751 0 0 0 
309 1 17.369 16.5936 7.59903 0 0 0 
310 1 18.4766 16.5626 7.46513 0 0 0 
311 1 19.488 16.6418 7.42018 0 0 0 
312 1 20.4887 16.5752 6.99213 0 0 0 
313 1 21.4589 16.0868 6.59677 0 0 0 
314 1 22.493 15.5976 6.6411 0 0 0 
315 1 23.3443 15.1861 6.52853 0 0 0 
316 1 24.1737 14.4325 6.14731 0 0 0 
317 1 25.1506 13.9181 6.38103 0 0 0 
318 1 25.9621 13.114 6.54267 0 0 0 
319 1 26.6773 12.2819 6.83818 0 0 0 
320 1 27.4518 11.6079 7.35927 0 0 0 
21 1 12.2191 3.27799 13.2464 0 0 0 
22 1 13.2041 3.09811 12.6409 0 0 0 
23 1 14.0864 3.18683 12.1035 0 0 0 
24 1 14.8634 3.47754 11.5143 0 0 0 
25 1 15.6004 3.86537 10.788 0 0 0 
26 1 16.3074 4.23428 10.1811 0 0 0 
27 1 17.1869 4.76153 9.78797 0 0 0 
28 1 18.059 5.46324 9.89523 0 0 0 
29 1 19.0464 5.74951 9.97202 0 0 0 
30 1 20.0763 5.91586 10.0321 0 0 0 
31 1 21.166 5.90492 9.96602 0 0 0 
32 1 22.2982 5.85419 10.0867 0 0 0 
33 1 23.4187 5.87428 10.0481 0 0 0 
34 1 24.564 5.63136 9.96364 0 0 0 
35 1 25.6079 5.41215 9.70377 0 0 0 
36 1 26.6453 4.98333 9.75678 0 0 0 
37 1 27.5451 4.48931 10.0282 0 0 0 
38 1 28.5116 4.26406 10.2331 0 0 0 
39 1 29.4033 3.96504 10.705 0 0 0 
40 1 30.3798 3.64239 11.2546 0 0 0 
121 1 8.83337 11.3592 7.59676 0 0 0 
122 1 9.74104 11.1888 7.88686 0 0 0 
123 1 10.655 11.0446 8.49761 0 0 0 
124 1 11.7269 11.2838 8.85916 0 0 0 
125 1 12.8076 11.1859 8.70093 0 0 0 
126 1 13.8872 11.3188 8.70664 0 0 0 
127 1 15.0602 11.2562 8.69919 0 0 0 
128 1 16.0918 10.9132 8.61268 0 0 0 
129 1 17.0784 10.4201 8.46397 0 0 0 
130 1 18.0624 10.2592 8.25765 0 0 0 
131 1 19.2351 9.93984 8.0969 0 0 0 
132 1 20.3018 9.46367 7.854 0 0 0 
133 1 21.2283 8.94505 7.65391 0 0 0 
134 1 21.9145 8.46627 8.14921 0 0 0 
135 1 22.8856 8.19322 8.53339 0 0 0 
136 1 24.0737 7.88011 8.52532 0 0 0 
137 1 25.1792 7.75088 8.5995 0 0 0 
138 1 26.2652 7.51848 8.611 0 0 0 
139 1 27.3174 6.94123 8.88372 0 0 0 
140 1 28.3648 6.95824 9.23257 0 0 0 
221 1 10.6832 17.634 8.55917 0 0 0 
222 1 11.3818 16.9105 9.16467 0 0 0 
223 1 12.0004 16.2183 9.77392 0 0 0 
224 1 12.8624 15.4788 10.0797 0 0 0 
225 1 13.7668 14.8585 10.2491 0 0 0 
226 1 14.4621 14.1024 10.0371 0 0 0 
227 1 15.295 13.4637 9.87609 0 0 0 
228 1 16.2282 12.9793 9.45722 0 0 0 
229 1 17.0819 12.4717 9.34289 0 0 0 
230 1 17.87 11.7718 9.1717 0 0 0 
231 1 18.7898 11.2149 8.84976 0 0 0 
232 1 19.6766 11.4138 9.08867 0 0 0 
233 1 20.6619 11.4505 9.59227 0 0 0 
234 1 21.465 11.7423 10.1114 0 0 0 
235 1 22.4324 12.017 10.5901 0 0 0 
236 1 23.3821 12.4489 10.8387 0 0 0 
237 1 24.5012 12.7864 10.9922 0 0 0 
238 1 25.4724 13.086 11.2628 0 0 0 
239 1 26.3325 13.2172 11.7747 0 0 0 
240 1 27.3683 13.8446 11.7481 0 0 0 
321 1 8.3423 18.9477 11.9638 0 0 0 
322 1 9.32735 19.0632 11.7184 0 0 0 
323 1 10.3955 18.9275 11.4788 0 0 0 
324 1 11.4246 18.819 11.1729 0 0 0 
325 1 12.6204 18.5411 11.1427 0 0 0 
326 1 13.5512 18.3062 10.7066 0 0 0 
327 1 14.7141 18.1866 10.4397 0 0 0 
328 1 15.7726 17.9333 10.1764 0 0 0 
329 1 16.828 17.4909 9.89483 0 0 0 
330 1 17.8332 17.097 9.91789 0 0 0 
331 1 19.0019 16.9183 9.83318 0 0 0 
332 1 20.1201 16.9658 9.9882 0 0 0 
333 1 21.2775 17.1407 10.0999 0 0 0 
334 1 22.3948 17.0146 9.79939 0 0 0 
335 1 23.4743 17.1351 9.74578 0 0 0 
336 1 24.5657 17.2796 9.61636 0 0 0 
337 1 25.4091 17.1894 9.03518 0 0 0 
338 1 26.0206 16.9495 8.1881 0 0 0 
339 1 26.5636 16.652 7.28511 0 0 0 
340 1 27.3274 16.4992 6.47008 0 0 0 
41 1 9.24296 5.27719 13.001 0 0 0 
42 1 10.333 5.29656 13.1537 0 0 0 
43 1 11.3479 5.58559 13.2232 0 0 0 
44 1 12.47 5.44666 13.469 0 0 0 
45 1 13.6342 5.36138 13.4476 0 0 0 
46 1 14.8343 5.29532 13.579 0 0 0 
47 1 15.8352 5.43895 13.5448 0 0 0 
48 1 16.8116 5.97074 13.7199 0 0 0 
49 1 17.8896 6.32363 13.743 0 0 0 
50 1 18.8905 6.41424 13.3672 0 0 0 
51 1 19.8713 6.3215 12.8741 0 0 0 
52 1 20.805 6.21238 12.3369 0 0 0 
53 1 21.3706 5.61275 11.6696 0 0 0 
54 1 21.9573 4.69734 11.1558 0 0 0 
55 1 22.7996 4.14846 10.6036 0 0 0 
56 1 23.773 3.96288 10.3168 0 0 0 
57 1 24.9338 4.22279 10.4136 0 0 0 
58 1 25.9971 4.55275 10.8847 0 0 0 
59 1 26.9816 5.00534 11.3278 0 0 0 
60 1 27.8883 4.99499 11.8193 0 0 0 
141 1 11.1262 9.60271 14.0273 0 0 0 
142 1 11.9917 9.15668 13.5448 0 0 0 
143 1 12.7964 8.57645 12.9897 0 0 0 
144 1 13.6821 8.02821 12.6561 0 0 0 
145 1 14.6507 7.45136 12.5383 0 0 0 
146 1 15.6708 7.10953 12.2341 0 0 0 
147 1 16.7864 7.07903 12.1996 0 0 0 
148 1 17.7606 7.08425 12.0289 0 0 0 
149 1 18.7679 7.13361 12.29 0 0 0 
150 1 19.6807 7.43865 12.8168 0 0 0 
151 1 20.5568 7.89072 13.0372 0 0 0 
152 1 21.5628 8.40323 12.9742 0 0 0 
153 1 22.6971 8.90385 12.9068 0 0 0 
154 1 23.7786 8.61586 12.5917 0 0 0 
155 1 24.9365 8.42859 12.1569 0 0 0 
156 1 25.869 8.01611 12.0933 0 0 0 
157 1 26.8047 7.65719 12.3284 0 0 0 
158 1 27.6946 6.98894 12.0861 0 0 0 
159 1 28.7607 6.64068 11.9986 0 0 0 
160 1 29.6382 6.17426 11.888 0 0 0 
241 1 9.5044 14.349 12.3587 0 0 0 
242 1 10.5915 14.4202 12.4216 0 0 0 
243 1 11.7042 14.4602 12.8117 0 0 0 
244 1 12.5452 14.8244 13.3054 0 0 0 
245 1 13.5404 15.2603 13.6425 0 0 0 
246 1 14.5563 15.3166 13.9671 0 0 0 
247 1 15.614 15.0948 14.1361 0 0 0 
248 1 16.6384 14.7662 14.3347 0 0 0 
249 1 17.4629 14.2018 14.7376 0 0 0 
250 1 18.4765 13.7456 14.86 0 0 0 
251 1 19.4591 13.4649 14.8516 0 0 0 
252 1 20.4562 13.456 14.8586 0 0 0 
253 1 21.6688 13.4242 14.7201 0 0 0 
254 1 22.7432 13.7022 14.4588 0 0 0 
255 1 23.6902 13.9377 14.4705 0 0 0 
256 1 24.8264 14.0609 14.4741 0 0 0 
257 1 25.9366 14.3145 14.5803 0 0 0 
258 1 27.0371 14.4804 14.4924 0 0 0 
259 1 28.1263 14.8029 14.5213 0 0 0 
260 1 29.0003 15.4919 14.3753 0 0 0 
341 1 10.0873 15.794 15.3403 0 0 0 
342 1 10.6019 16.5901 14.6886 0 0 0 
343 1 11.1627 17.0576 13.8352 0 0 0 
344 1 11.9789 17.6079 13.228 0 0 0 
345 1 12.9457 18.0609 12.9426 0 0 0 
346 1 13.792 18.8594 12.774 0 0 0 
347 1 14.7085 19.2588 12.8461 0 0 0 
348 1 15.7862 19.6367 12.9161 0 0 0 
349 1 16.8182 19.504 13.1128 0 0 0 
350 1 17.7928 18.9026 13.1991 0 0 0 
351 1 19.0315 18.5222 13.2093 0 0 0 
352 1 20.2105 18.2505 13.4122 0 0 0 
353 1 21.1552 17.8912 13.6518 0 0 0 
354 1 22.1421 17.2735 13.6831 0 0 0 
355 1 23.0422 16.8683 13.6961 0 0 0 
356 1 24.087 16.7495 14.2251 0 0 0 
357 1 25.0573 16.8815 14.7609 0 0 0 
358 1 26.0396 16.7266 15.3518 0 0 0 
359 1 26.611 16.6547 16.2683 0 0 0 
360 1 27.4716 16.4568 16.9714 0 0 0 
61 1 9.26461 9.34754 17.936 0 0 0 
62 1 10.3906 9.03044 18.0803 0 0 0 
63 1 11.4222 8.51223 18.1139 0 0 0 
64 1 12.1839 7.64385 18.1201 0 0 0 
65 1 12.9705 7.00185 18.1551 0 0 0 
66 1 14.0349 6.79251 18.5102 0 0 0 
67 1 14.9343 6.32642 18.6785 0 0 0 
68 1 15.9546 6.14196 18.6046 0 0 0 
69 1 16.8866 5.53694 18.812 0 0 0 
70 1 17.6389 4.65752 18.5245 0 0 0 
71 1 18.534 4.14393 18.0812 0 0 0 
72 1 19.3512 3.46144 17.892 0 0 0 
73 1 20.2437 2.91983 17.7994 0 0 0 
74 1 21.1981 2.47738 17.7696 0 0 0 
75 1 22.2791 2.3234 18.0763 0 0 0 
76 1 23.2726 2.25307 18.4677 0 0 0 
77 1 24.445 2.1784 19.041 0 0 0 
78 1 25.3163 1.84422 19.6172 0 0 0 
79 1 26.3908 1.64863 20.2491 0 0 0 
80 1 27.1572 0.9428 20.7713 0 0 0 
161 1 10.2847 11.3756 18.8844 0 0 0 
162 1 10.7094 10.5931 18.3709 0 0 0 
163 1 11.4126 9.7564 17.7796 0 0 0 
164 1 12.2216 9.54019 17.1656 0 0 0 
165 1 13.1175 9.41363 16.5055 0 0 0 
166 1 14.124 9.34727 16.1079 0 0 0 
167 1 15.2651 9.29038 15.96 0 0 0 
168 1 16.2533 9.59166 15.8964 0 0 0 
169 1 17.395 10.0633 15.9118 0 0 0 
170 1 18.3052 10.7222 16.1887 0 0 0 
171 1 19.283 11.0556 16.5458 0 0 0 
172 1 20.3501 11.2042 16.4349 0 0 0 
173 1 21.3641 11.0445 16.4526 0 0 0 
174 1 22.3741 11.2525 16.3777 0 0 0 
175 1 23.4977 11.4631 16.1196 0 0 0 
176 1 24.5774 11.5616 15.8331 0 0 0 
177 1 25.3694 12.068 15.4656 0 0 0 
178 1 26.3211 12.5663 15.1694 0 0 0 
179 1 27.2804 13.0303 14.688 0 0 0 
180 1 28.273 12.972 14.1239 0 0 0 
261 1 11.0944 14.8285 18.8148 0 0 0 
262 1 12.15 14.6948 18.8094 0 0 0 
263 1 13.0207 14.1888 18.7435 0 0 0 
264 1 13.8872 13.6207 18.5781 0 0 0 
265 1 14.882 13.2169 18.1743 0 0 0 
266 1 15.7121 12.9848 17.6147 0 0 0 
267 1 16.6345 12.6574 17.1294 0 0 0 
268 1 17.5576 12.4273 16.57 0 0 0 
269 1 18.4495 12.166 16.0568 0 0 0 
270 1 19.5522 12.1179 15.6756 0 0 0 
271 1 20.719 12.075 15.537 0 0 0 
272 1 21.7974 12.3849 15.2895 0 0 0 
273 1 22.9101 12.7481 15.2828 0 0 0 
274 1 23.8534 13.4163 15.596 0 0 0 
275 1 24.774 13.7402 15.9808 0 0 0 
276 1 25.7552 14.0607 16.6065 0 0 0 
277 1 26.6852 14.0055 17.2298 0 0 0 
278 1 27.6904 13.9875 17.9158 0 0 0 
279 1 28.452 13.8253 18.5948 0 0 0 
280 1 29.1784 13.5213 19.4808 0 0 0 
361 1 10.9408 18.6979 17.6764 0 0 0 
362 1 11.7859 18.0394 17.4761 0 0 0 
363 1 12.7421 17.2449 17.3149 0 0 0 
364 1 13.6484 16.58 17.0071 0 0 0 
365 1 14.5391 15.8784 17.0405 0 0 0 
366 1 15.4535 15.5646 16.7042 0 0 0 
367 1 16.4036 15.2725 16.5253 0 0 0 
368 1 17.4911 15.5678 16.2768 0 0 0 
369 1 18.528 15.7183 15.9579 0 0 0 
370 1 19.4237 16.2462 15.5769 0 0 0 
371 1 20.1414 16.9331 15.4413 0 0 0 
372 1 21.1622 17.2026 15.0355 0 0 0 
373 1 22.1677 17.4594 15.1932 0 0 0 
374 1 23.0968 17.8753 15.6469 0 0 0 
375 1 23.7829 18.3043 16.4621 0 0 0 
376 1 24.6482 18.3305 17.1754 0 0 0 
377 1 25.3217 18.3587 17.9112 0 0 0 
378 1 25.7526 18.5516 18.8075 0 0 0 
379 1 26.1254 18.7092 19.6974 0 0 0 
380 1 26.3313 18.3418 20.6466 0 0 0 
81 1 10.6368 7.06306 20.8659 0 0 0 
82 1 11.3855 6.37767 20.9501 0 0 0 
83 1 12.2365 5.58818 20.8243 0 0 0 
84 1 13.2558 5.39034 21.1263 0 0 0 
85 1 14.411 5.59947 21.0922 0 0 0 
86 1 15.533 5.12559 21.2858 0 0 0 
87 1 16.5064 4.76244 21.6947 0 0 0 
88 1 17.4438 4.72937 22.1339 0 0 0 
89 1 18.6502 4.9646 22.4061 0 0 0 
90 1 19.4991 5.34497 22.7936 0 0 0 
91 1 20.4836 5.90172 23.0844 0 0 0 
92 1 21.5953 6.34635 23.2278 0 0 0 
93 1 22.77 6.30343 23.2988 0 0 0 
94 1 23.797 6.15074 23.5352 0 0 0 
95 1 24.7906 6.11194 23.9301 0 0 0 
96 1 25.9188 6.04602 23.7022 0 0 0 
97 1 27.0032 6.28597 23.6262 0 0 0 
98 1 27.9375 6.68095 23.8332 0 0 0 
99 1 28.8633 6.96873 24.1221 0 0 0 
100 1 29.7862 7.17557 24.6286 0 0 0 
181 1 11.6041 5.4543 23.6026 0 0 0 
182 1 12.3094 6.06356 22.9324 0 0 0 
183 1 13.0622 6.77823 22.971 0 0 0 
184 1 13.8927 7.54009 22.8343 0 0 0 
185 1 14.7341 8.15266 22.59 0 0 0 
186 1 15.7025 8.94923 22.426 0 0 0 
187 1 16.5039 9.63167 22.2293 0 0 0 
188 1 16.9599 10.6387 22.3614 0 0 0 
189 1 17.8255 11.2735 22.7191 0 0 0 
190 1 18.7465 11.4828 23.0845 0 0 0 
191 1 19.78 11.8872 23.3432 0 0 0 
192 1 20.6752 11.8546 23.7721 0 0 0 
193 1 21.7963 11.5092 23.8204 0 0 0 
194 1 22.7887 11.0083 24.021 0 0 0 
195 1 23.5729 10.2806 23.7166 0 0 0 
196 1 24.092 9.57452 23.4716 0 0 0 
197 1 24.7626 8.72276 23.0474 0 0 0 
198 1 25.4298 8.00045 22.7461 0 0 0 
199 1 26.4193 7.39002 22.4215 0 0 0 
200 1 27.1988 6.91833 21.8649 0 0 0 
281 1 10.905 10.698 21.5514 0 0 0 
282 1 11.8358 11.0003 20.8788 0 0 0 
283 1 12.8506 11.1497 20.2305 0 0 0 
284 1 13.8133 11.0966 19.8732 0 0 0 
285 1 14.821 11.516 20.03 0 0 0 
286 1 15.8975 11.9596 20.0529 0 0 0 
287 1 17.0871 12.3164 20.1519 0 0 0 
288 1 18.0701 12.7636 20.242 0 0 0 
289 1 18.9946 12.9036 20.5949 0 0 0 
290 1 20.0713 12.8479 20.9257 0 0 0 
291 1 21.0738 12.6955 21.1822 0 0 0 
292 1 22.1749 12.5571 21.0352 0 0 0 
293 1 23.2447 12.7566 21.1601 0 0 0 
294 1 24.4513 12.8817 21.2172 0 0 0 
295 1 25.6283 13.0993 21.5136 0 0 0 
296 1 26.6383 13.7573 21.546 0 0 0 
297 1 27.6793 13.7653 21.8366 0 0 0 
298 1 28.6958 13.6 22.2738 0 0 0 
299 1 29.6365 13.1878 22.5488 0 0 0 
300 1 30.7156 13.29 22.9883 0 0 0 
381 1 10.6547 17.6771 21.7176 0 0 0 
382 1 11.3192 17.4605 20.739 0 0 0 
383 1 12.0721 17.7374 20.0775 0 0 0 
384 1 12.9069 17.9061 19.3544 0 0 0 
385 1 13.999 17.7854 18.7715 0 0 0 
386 1 15.1732 17.4929 18.7315 0 0 0 
387 1 16.3081 17.218 18.8562 0 0 0 
388 1 17.2273 16.8916 19.2635 0 0 0 
389 1 18.1128 16.7759 19.6584 0 0 0 
390 1 18.8727 16.7412 20.3395 0 0 0 
391 1 19.7014 16.7652 21.2552 0 0 0 
392 1 20.6164 17.0374 22.0058 0 0 0 
393 1 21.6984 17.0113 22.4959 0 0 0 
394 1 22.8213 17.1073 22.8495 0 0 0 
395 1 23.6579 17.7466 22.9852 0 0 0 
396 1 24.605 18.2299 23.3861 0 0 0 
397 1 25.6451 18.4867 23.5995 0 0 0 
398 1 26.6573 18.7544 23.7377 0 0 0 
399 1 27.6548 18.7752 23.4986 0 0 0 
400 1 28.7057 18.3683 23.5741 0 0 0 
ITEM: TIMESTEP
2000
ITEM: NUMBER OF ATOMS
400
ITEM: BOX BOUNDS pp pp pp
0.0000000000000000e+00 4.0000000000000000e+01
0.0000000000000000e+00 4.0000000000000000e+01
0.0000000000000000e+00 4.0000000000000000e+01
ITEM: ATOMS id type x y z ix iy iz 
19 1 27.8913 3.56987 4.84589 0 0 0 
20 1 28.8475 2.88103 4.46111 0 0 0 
301 1 13.6521 12.0321 0.399682 0 0 0 
302 1 13.9823 12.9935 0.916694 0 0 0 
1 1 11.3839 4.07661 8.42605 0 0 0 
101 1 11.6073 11.0879 4.25762 0 0 0 
102 1 12.7859 11.0781 3.95882 0 0 0 
103 1 13.8335 11.3225 3.97439 0 0 0 
104 1 14.9525 11.4208 3.79953 0 0 0 
105 1 15.9996 11.6338 3.45276 0 0 0 
106 1 16.9811 11.7516 2.98529 0 0 0 
16 1 25.4865 5.62425 5.6198 0 0 0 
17 1 26.234 4.6977 5.49925 0 0 0 
18 1 26.9519 4.10223 5.22728 0 0 0 
107 1 17.8554 12.0208 2.58393 0 0 0 
108 1 18.9609 11.8789 2.46423 0 0 0 
109 1 20.0676 11.6187 2.48381 0 0 0 
110 1 20.99 10.9986 2.53923 0 0 0 
111 1 21.9841 10.5953 2.92202 0 0 0 
112 1 22.7995 10.1854 3.34675 0 0 0 
113 1 23.5113 9.39755 3.92412 0 0 0 
114 1 24.194 8.7287 4.28208 0 0 0 
303 1 13.9881 14.0034 1.49032 0 0 0 
304 1 14.2859 14.8176 2.21167 0 0 0 
2 1 12.3928 4.35772 7.96835 0 0 0 
3 1 13.3099 4.9381 7.57194 0 0 0 
15 1 24.5438 6.30148 5.69548 0 0 0 
117 1 26.2121 7.56825 6.53676 0 0 0 
206 1 15.0083 10.8277 6.16599 0 0 0 
207 1 15.8024 10.4578 6.72344 0 0 0 
208 1 16.5684 10.1355 7.32165 0 0 0 
209 1 17.5749 9.99392 7.61992 0 0 0 
210 1 18.7153 10.0925 7.70273 0 0 0 
115 1 24.7689 8.2633 4.98143 0 0 0 
116 1 25.4603 7.84058 5.74927 0 0 0 
202 1 11.3768 13.3263 4.64092 0 0 0 
203 1 12.2649 12.8523 5.12988 0 0 0 
204 1 13.2766 12.1829 5.45539 0 0 0 
205 1 14.0474 11.4037 5.94947 0 0 0 
211 1 19.8351 10.1236 7.89912 0 0 0 
305 1 14.5443 15.5159 2.90454 0 0 0 
306 1 15.0684 16.0016 3.79521 0 0 0 
4 1 14 5.52979 6.88813 0 0 0 
5 1 14.9239 5.95296 6.44868 0 0 0 
12 1 21.7759 8.18352 6.34779 0 0 0 
13 1 22.8064 7.68271 5.91478 0 0 0 
14 1 23.8692 7.13989 5.83308 0 0 0 
120 1 28.1647 8.73626 9.10602 0 0 0 
118 1 27.031 7.83783 7.28461 0 0 0 
119 1 27.6161 8.21721 8.24888 0 0 0 
121 1 10.6189 12.6414 11.2537 0 0 0 
212 1 21.015 10.2698 7.74501 0 0 0 
213 1 22.0163 10.1775 7.63574 0 0 0 
320 1 26.1592 14.0922 2.63037 0 0 0 
201 1 10.2888 13.2653 4.2364 0 0 0 
214 1 23.1709 9.81402 7.4542 0 0 0 
215 1 24.1809 10.0354 7.23179 0 0 0 
216 1 25.1569 10.572 6.75108 0 0 0 
317 1 23.7925 14.5193 4.9862 0 0 0 
318 1 24.4706 14.1346 4.18558 0 0 0 
319 1 25.3452 14.1311 3.46415 0 0 0 
315 1 21.9436 14.4923 6.09473 0 0 0 
316 1 22.8639 14.4545 5.42224 0 0 0 
308 1 15.9453 16.9655 5.63489 0 0 0 
310 1 17.4574 17.0295 7.14048 0 0 0 
311 1 18.4146 16.7133 7.3675 0 0 0 
312 1 19.1987 16.0707 7.10622 0 0 0 
313 1 20.066 15.4609 6.93662 0 0 0 
314 1 21.0771 14.9141 6.80347 0 0 0 
339 1 27.2334 17.1839 7.14755 0 0 0 
340 1 27.7836 16.7538 6.3339 0 0 0 
307 1 15.5968 16.3571 4.73737 0 0 0 
6 1 15.6635 6.54743 5.90518 0 0 0 
7 1 16.5395 7.16436 5.70842 0 0 0 
8 1 17.6462 7.41481 5.92316 0 0 0 
9 1 18.5613 7.78469 6.0712 0 0 0 
10 1 19.5592 8.2024 6.2673 0 0 0 
11 1 20.6876 8.26272 6.43731 0 0 0 
138 1 27.7897 9.89049 9.87954 0 0 0 
139 1 28.8562 9.89057 9.85832 0 0 0 
140 1 29.9579 9.84213 9.60876 0 0 0 
134 1 23.3316 9.3076 9.94771 0 0 0 
135 1 24.4411 9.36325 9.82606 0 0 0 
136 1 25.5465 9.58756 9.81613 0 0 0 
137 1 26.7072 9.68721 9.8057 0 0 0 
129 1 17.6041 8.46674 9.51656 0 0 0 
130 1 18.7077 8.57692 9.64509 0 0 0 
131 1 20.0474 8.70756 9.8526 0 0 0 
132 1 21.1688 8.73898 9.95504 0 0 0 
133 1 22.2416 8.94064 10.088 0 0 0 
122 1 11.6351 12.3084 11.2596 0 0 0 
123 1 12.6088 11.9499 11.1397 0 0 0 
124 1 13.4123 11.1793 10.8214 0 0 0 
125 1 14.11 10.4994 10.1764 0 0 0 
126 1 14.6696 9.73827 9.78394 0 0 0 
127 1 15.8061 9.16674 9.74377 0 0 0 
128 1 16.6088 8.78653 9.53976 0 0 0 
230 1 18.4172 11.7623 10.0206 0 0 0 
231 1 19.4707 11.4412 9.81372 0 0 0 
232 1 20.6353 11.2087 9.89397 0 0 0 
217 1 26.0903 11.119 6.42003 0 0 0 
218 1 26.8807 11.7461 5.81932 0 0 0 
219 1 27.3804 12.4531 5.23805 0 0 0 
220 1 27.9424 13.1768 4.60184 0 0 0 
309 1 16.5014 17.2154 6.45491 0 0 0 
221 1 10.4575 16.5086 12.186 0 0 0 
337 1 25.7132 18.0576 8.4917 0 0 0 
338 1 26.3519 17.7106 7.89461 0 0 0 
26 1 17.212 4.69726 10.7162 0 0 0 
55 1 22.8948 3.99193 10.9955 0 0 0 
56 1 23.7753 3.519 10.5994 0 0 0 
57 1 24.6331 3.16065 10.5488 0 0 0 
38 1 30.0209 5.70024 9.59552 0 0 0 
27 1 18.2058 5.03476 10.6938 0 0 0 
28 1 19.125 5.41317 10.5017 0 0 0 
29 1 20.0883 5.89277 10.5011 0 0 0 
30 1 21.2288 5.88739 10.5285 0 0 0 
31 1 22.3715 6.01006 10.4754 0 0 0 
32 1 23.4048 6.51209 10.4119 0 0 0 
33 1 24.4384 6.56585 10.2843 0 0 0 
34 1 25.6425 6.58734 10.0279 0 0 0 
35 1 26.8052 6.56191 9.89372 0 0 0 
36 1 27.9418 6.4373 9.82241 0 0 0 
37 1 29.0659 6.05961 9.78528 0 0 0 
233 1 21.6055 10.7429 10.236 0 0 0 
234 1 22.6276 10.6383 10.6972 0 0 0 
235 1 23.655 10.7753 11.0255 0 0 0 
227 1 15.821 13.1339 10.8084 0 0 0 
228 1 16.5816 12.6355 10.4448 0 0 0 
229 1 17.3712 12.2378 10.1599 0 0 0 
225 1 14.1032 14.2786 11.4663 0 0 0 
226 1 14.8987 13.7414 11.1784 0 0 0 
223 1 12.4082 15.4801 11.732 0 0 0 
224 1 13.2239 15.0166 11.5066 0 0 0 
331 1 19.9933 17.8033 11.259 0 0 0 
222 1 11.5624 16.0349 12.011 0 0 0 
327 1 16.341 19.5745 12.1408 0 0 0 
328 1 17.1965 18.9672 12.2609 0 0 0 
329 1 18.2466 18.5069 12.3189 0 0 0 
330 1 19.261 17.983 11.9737 0 0 0 
332 1 20.9808 17.7352 10.7572 0 0 0 
333 1 21.8812 17.8593 10.3413 0 0 0 
334 1 22.9731 18.048 10.3098 0 0 0 
335 1 23.9448 18.1469 9.84287 0 0 0 
336 1 24.9618 18.088 9.28747 0 0 0 
23 1 15.1724 2.90794 9.35274 0 0 0 
24 1 15.7129 3.71852 9.90921 0 0 0 
25 1 16.2054 4.48007 10.4979 0 0 0 
58 1 25.7946 2.91697 10.2903 0 0 0 
39 1 30.8945 5.26062 9.46242 0 0 0 
40 1 31.7198 4.7051 9.65251 0 0 0 
53 1 21.3199 4.29113 12.4222 0 0 0 
54 1 22.0831 3.99053 11.7325 0 0 0 
59 1 26.6135 2.35508 10.1732 0 0 0 
60 1 27.5236 1.68618 10.2501 0 0 0 
146 1 14.126 8.63475 10.628 0 0 0 
147 1 15.2418 8.45367 10.8914 0 0 0 
148 1 16.3316 8.21397 10.8584 0 0 0 
157 1 25.9147 7.19071 12.0703 0 0 0 
158 1 27.0274 7.03922 12.0939 0 0 0 
159 1 27.7879 6.49085 11.7382 0 0 0 
160 1 28.535 5.91352 11.1197 0 0 0 
155 1 23.7407 7.34366 11.6942 0 0 0 
156 1 24.7024 7.19556 12.0091 0 0 0 
236 1 24.5885 10.821 11.2071 0 0 0 
237 1 25.7129 11.2835 11.2413 0 0 0 
238 1 26.7604 11.1611 10.9861 0 0 0 